# vtk DataFile Version 3.0
vtk output
ASCII
DATASET POLYDATA
FIELD FieldData 3
group_id 1 1 int
0 
base_index 1 3 int
0 0 0 
avtOriginalBounds 1 6 double
-10 10 -10 10 -10 10 
POINTS 14387 float
-5.10204 -2.65306 -9.69246 -5.10204 -2.75294 -9.59184 -5.37199 -2.65306 -9.59184 
-4.69388 -2.65306 -9.79238 -4.69388 -2.83785 -9.59184 -4.28571 -2.65306 -9.83044 
-4.28571 -2.86349 -9.59184 -3.87755 -2.65306 -9.8027 -3.87755 -2.83558 -9.59184 
-3.46939 -2.65306 -9.70859 -3.46939 -2.75412 -9.59184 -3.16185 -2.65306 -9.59184 
-5.91837 -2.2449 -9.67426 -5.91837 -2.3591 -9.59184 -6.0572 -2.2449 -9.59184 
-5.5102 -2.2449 -9.90201 -5.5102 -2.60173 -9.59184 -5.29133 -2.2449 -10 
-5.10204 -2.34341 -10 -4.69388 -2.46479 -10 -4.28571 -2.50804 -10 
-3.87755 -2.48799 -10 -3.46939 -2.4085 -10 -3.06122 -2.62124 -9.59184 
-3.06122 -2.26974 -10 -3.00438 -2.2449 -10 -2.65306 -2.2449 -9.82191 
-2.65306 -2.44686 -9.59184 -2.28205 -2.2449 -9.59184 -6.32653 -1.83673 -9.62284 
-6.32653 -1.90673 -9.59184 -6.37239 -1.83673 -9.59184 -5.91837 -1.83673 -9.92052 
-5.5102 -2.11754 -10 -5.80043 -1.83673 -10 -2.65306 -2.0857 -10 
-2.2449 -2.22385 -9.59184 -2.2449 -1.8572 -10 -2.20933 -1.83673 -10 
-1.83673 -1.83673 -9.75598 -1.83673 -1.98178 -9.59184 -1.59519 -1.83673 -9.59184 
-6.32653 -1.42857 -9.72695 -6.49115 -1.42857 -9.59184 -5.91837 -1.64424 -10 
-6.01733 -1.42857 -10 -1.83673 -1.61223 -10 -1.51305 -1.42857 -10 
-1.42857 -1.42857 -9.94765 -1.42857 -1.73784 -9.59184 -1.02041 -1.42857 -9.70252 
-1.02041 -1.5185 -9.59184 -0.845376 -1.42857 -9.59184 -6.32653 -1.02041 -9.71556 
-6.45204 -1.02041 -9.59184 -6.06624 -1.02041 -10 -1.42857 -1.38105 -10 
-1.02041 -1.18762 -10 -0.640491 -1.02041 -10 -0.612245 -1.02041 -9.98584 
-0.612245 -1.32385 -9.59184 -0.204082 -1.02041 -9.73162 -0.204082 -1.12577 -9.59184 
-0.0269561 -1.02041 -9.59184 -6.32653 -0.739463 -9.59184 -6.29433 -0.612245 -9.59184 
-5.98988 -0.612245 -10 -0.612245 -1.00962 -10 -0.204082 -0.82137 -10 
0.116972 -0.612245 -10 0.204082 -0.612245 -9.9317 0.204082 -0.888227 -9.59184 
0.555894 -0.612245 -9.59184 -5.91837 -0.204082 -9.86031 -5.91837 -0.471374 -10 
-6.08782 -0.204082 -9.59184 -5.82704 -0.204082 -10 0.204082 -0.55024 -10 
0.546074 -0.204082 -10 0.612245 -0.204082 -9.93041 0.612245 -0.558493 -9.59184 
0.926723 -0.204082 -9.59184 -5.91837 0.0136587 -9.59184 -5.82298 0.204082 -9.59184 
-5.61604 0.204082 -10 0.612245 -0.0951257 -10 0.781924 0.204082 -10 
1.02041 0.204082 -9.72929 1.02041 -0.0305591 -9.59184 1.15941 0.204082 -9.59184 
-5.5102 0.612245 -9.76864 -5.5102 0.386942 -10 -5.57454 0.612245 -9.59184 
-5.39188 0.612245 -10 0.872799 0.612245 -10 1.02041 0.612245 -9.83724 
1.28081 0.612245 -9.59184 -5.5102 0.754187 -9.59184 -5.38477 1.02041 -9.59184 
-5.22625 1.02041 -10 0.834501 1.02041 -10 1.02041 1.02041 -9.8188 
1.29211 1.02041 -9.59184 -5.17991 1.42857 -10 -5.34351 1.42857 -9.59184 
0.641169 1.42857 -10 1.02041 1.42857 -9.69759 1.17371 1.42857 -9.59184 
-5.5102 1.83674 -9.72423 -5.5102 1.73129 -9.59184 -5.56732 1.83674 -9.59184 
-5.31048 1.83674 -10 0.612245 1.46495 -10 0.230805 1.83674 -10 
0.612245 1.83674 -9.75314 0.870527 1.83674 -9.59184 1.02041 1.64977 -9.59184 
-5.91837 2.2449 -9.81254 -5.91837 2.12949 -9.59184 -6.08092 2.2449 -9.59184 
-5.70622 2.2449 -10 -5.5102 2.0501 -10 -0.612245 2.24107 -10 
-0.624958 2.2449 -10 -0.612245 2.2449 -9.99546 -0.204082 2.2449 -9.82218 
-0.204082 2.08725 -10 0.204082 2.2449 -9.62338 0.204082 1.85656 -10 
0.266065 2.2449 -9.59184 0.612245 2.04265 -9.59184 -6.32653 2.65306 -9.85333 
-6.32653 2.47383 -9.59184 -6.53491 2.65306 -9.59184 -6.15853 2.65306 -10 
-5.91837 2.43774 -10 -1.42857 2.53604 -10 -1.68265 2.65306 -10 
-1.42857 2.65306 -9.87266 -1.02041 2.65306 -9.68701 -1.02041 2.38347 -10 
-0.799645 2.65306 -9.59184 -0.612245 2.59206 -9.59184 -0.204082 2.45189 -9.59184 
0.204082 2.27656 -9.59184 -6.32653 2.9652 -10 -6.3819 3.06122 -10 
-6.70084 3.06122 -9.59184 -2.2449 2.9821 -10 -2.35605 3.06122 -10 
-2.2449 3.06122 -9.92319 -1.83673 3.06122 -9.65621 -1.83673 2.73206 -10 
-1.72962 3.06122 -9.59184 -1.42857 2.90769 -9.59184 -1.02041 2.73596 -9.59184 
-6.36748 3.46939 -10 -6.67098 3.46939 -9.59184 -2.65306 3.2841 -10 
-2.87993 3.46939 -10 -2.65306 3.46939 -9.82578 -2.34841 3.46939 -9.59184 
-2.2449 3.39173 -9.59184 -1.83673 3.12208 -9.59184 -6.32653 3.87755 -9.80557 
-6.32653 3.56688 -10 -6.46697 3.87755 -9.59184 -6.12971 3.87755 -10 
-3.06122 3.62144 -10 -3.37068 3.87755 -10 -3.06122 3.87755 -9.76257 
-2.85171 3.87755 -9.59184 -2.65306 3.71184 -9.59184 -6.32653 4.06523 -9.59184 
-5.91837 4.28571 -9.77435 -6.06164 4.28571 -9.59184 -5.91837 4.10377 -10 
-5.59886 4.28571 -10 -3.87755 4.23986 -10 -3.97305 4.28571 -10 
-3.87755 4.28571 -9.95398 -3.46939 4.28571 -9.6895 -3.46939 3.95912 -10 
-3.34177 4.28571 -9.59184 -3.06122 4.06075 -9.59184 -5.91837 4.41556 -9.59184 
-5.5102 4.34476 -10 -5.5102 4.63004 -9.59184 -5.10204 4.69388 -9.68776 
-5.27153 4.69388 -9.59184 -5.10204 4.4766 -10 -4.69388 4.69388 -9.75672 
-4.69388 4.5056 -10 -4.28571 4.69388 -9.7028 -4.28571 4.43193 -10 
-3.99646 4.69388 -9.59184 -3.87755 4.65198 -9.59184 -3.46939 4.39551 -9.59184 
-5.10204 4.76795 -9.59184 -4.69388 4.83836 -9.59184 -4.28571 4.80908 -9.59184 
-3.87755 6.32653 -9.6175 -3.87755 6.30666 -9.59184 -3.91377 6.32653 -9.59184 
-3.65458 6.32653 -9.59184 -4.28571 6.72477 -10 -4.28571 6.47956 -9.59184 
-4.51901 6.73469 -9.59184 -4.29484 6.73469 -10 -3.87755 6.50224 -10 
-3.46939 6.33532 -9.59184 -3.46939 6.51435 -10 -3.08744 6.73469 -10 
-3.06122 6.73469 -9.96708 -3.06122 6.53812 -9.59184 -2.89009 6.73469 -9.59184 
-4.69388 7.14286 -9.80145 -4.69388 6.9814 -9.59184 -4.78142 7.14286 -9.59184 
-4.61469 7.14286 -10 -3.06122 6.7485 -10 -2.73159 7.14286 -10 
-2.65306 7.14286 -9.76326 -2.65306 7.04577 -9.59184 -2.60401 7.14286 -9.59184 
-4.69388 7.37141 -10 -4.7538 7.55102 -10 -4.9156 7.55102 -9.59184 
-2.65306 7.28438 -10 -2.53954 7.55102 -10 -2.4448 7.55102 -9.59184 
-4.75329 7.95918 -10 -4.93143 7.95918 -9.59184 -2.43057 7.95918 -10 
-2.35207 7.95918 -9.59184 -4.69388 8.36735 -9.76846 -4.69388 8.1081 -10 
-4.79358 8.36735 -9.59184 -4.5915 8.36735 -10 -2.37379 8.36735 -10 
-2.30744 8.36735 -9.59184 -7.55102 8.77551 -9.59833 -7.55102 8.76843 -9.59184 
-7.56384 8.77551 -9.59184 -7.14286 8.77551 -9.62173 -7.14286 8.74107 -9.59184 
-7.03638 8.77551 -9.59184 -4.69388 8.4857 -9.59184 -4.28571 8.77551 -9.80041 
-4.41413 8.77551 -9.59184 -4.28571 8.68755 -10 -4.16838 8.77551 -10 
-2.42887 8.77551 -10 -2.36829 8.77551 -9.59184 -7.95918 9.18367 -9.68383 
-7.95918 9.03457 -9.59184 -8.06644 9.18367 -9.59184 -7.55102 9.18367 -9.85023 
-7.14286 9.18367 -9.84971 -6.73469 8.95143 -9.59184 -6.73469 9.18367 -9.70109 
-6.55616 9.18367 -9.59184 -4.28571 8.85766 -9.59184 -3.87755 8.94095 -10 
-3.87755 9.06318 -9.59184 -3.46939 9.18367 -9.63748 -3.5043 9.18367 -9.59184 
-3.46939 9.09635 -10 -3.06122 9.18367 -9.96902 -3.06122 9.17722 -10 
-2.78128 9.18367 -9.59184 -2.65306 9.14243 -9.59184 -2.65306 9.06272 -10 
-7.95918 9.59184 -9.75769 -8.15828 9.59184 -9.59184 -7.55102 9.59184 -9.9026 
-7.14286 9.59184 -9.88933 -6.73469 9.59184 -9.72284 -6.54647 9.59184 -9.59184 
-3.46939 9.19372 -9.59184 -3.06122 9.24572 -9.59184 -7.95918 10 -9.62981 
-8.00505 10 -9.59184 -7.55102 10 -9.7884 -7.14286 10 -9.76128 
-6.79559 10 -9.59184 -6.73469 9.91 -9.59184 -5.10204 -3.06122 -9.2045 
-5.10204 -3.07893 -9.18367 -5.17056 -3.06122 -9.18367 -4.69388 -3.06122 -9.2833 
-4.69388 -3.14061 -9.18367 -4.28571 -3.06122 -9.30451 -4.28571 -3.15416 -9.18367 
-3.87755 -3.06122 -9.25978 -3.87755 -3.11927 -9.18367 -3.59783 -3.06122 -9.18367 
-5.91837 -2.65306 -9.33895 -5.91837 -2.82121 -9.18367 -6.23945 -2.65306 -9.18367 
-5.5102 -2.65306 -9.53559 -5.5102 -2.97782 -9.18367 -3.46939 -3.03717 -9.18367 
-3.06122 -2.65306 -9.54391 -3.06122 -2.91379 -9.18367 -2.65306 -2.65306 -9.29282 
-2.65306 -2.73426 -9.18367 -2.50168 -2.65306 -9.18367 -6.73469 -2.2449 -9.19937 
-6.73469 -2.2752 -9.18367 -6.77127 -2.2449 -9.18367 -6.32653 -2.2449 -9.42262 
-6.32653 -2.59784 -9.18367 -2.2449 -2.2449 -9.56135 -2.2449 -2.51527 -9.18367 
-1.83673 -2.2449 -9.20772 -1.83673 -2.2621 -9.18367 -1.80966 -2.2449 -9.18367 
-6.73469 -1.83673 -9.34115 -7.04088 -1.83673 -9.18367 -1.42857 -1.83673 -9.43798 
-1.42857 -2.00668 -9.18367 -1.15091 -1.83673 -9.18367 -6.73469 -1.42857 -9.38135 
-7.05511 -1.42857 -9.18367 -1.02041 -1.76183 -9.18367 -0.612245 -1.42857 -9.38489 
-0.612245 -1.54221 -9.18367 -0.405593 -1.42857 -9.18367 -6.73469 -1.02041 -9.29159 
-6.88522 -1.02041 -9.18367 -0.204082 -1.33004 -9.18367 0.204082 -1.02041 -9.325 
0.204082 -1.09669 -9.18367 0.317955 -1.02041 -9.18367 -6.73469 -0.860001 -9.18367 
-6.32653 -0.612245 -9.54024 -6.61818 -0.612245 -9.18367 0.612245 -0.612245 -9.50969 
0.612245 -0.813184 -9.18367 0.853241 -0.612245 -9.18367 -6.32653 -0.250393 -9.18367 
-6.30682 -0.204082 -9.18367 1.02041 -0.204082 -9.44903 1.02041 -0.43675 -9.18367 
1.24098 -0.204082 -9.18367 -5.91837 0.204082 -9.38357 -6.02445 0.204082 -9.18367 
1.42857 0.204082 -9.26822 1.42857 0.0807671 -9.18367 1.52462 0.204082 -9.18367 
-5.91837 0.322948 -9.18367 -5.74851 0.612245 -9.18367 1.42857 0.612245 -9.4273 
1.73698 0.612245 -9.18367 -5.5102 1.02041 -9.31247 -5.55616 1.02041 -9.18367 
1.42857 1.02041 -9.46449 1.83674 0.959998 -9.18367 1.83674 1.02041 -9.1956 
1.86049 1.02041 -9.18367 -5.5102 1.42857 -9.25359 -5.53582 1.42857 -9.18367 
1.42857 1.42857 -9.40825 1.83674 1.42857 -9.20003 1.87732 1.42857 -9.18367 
-5.80407 1.83674 -9.18367 1.02041 1.83674 -9.49069 1.42857 1.83674 -9.284 
1.702 1.83674 -9.18367 1.83674 1.53429 -9.18367 -6.32653 2.2449 -9.24691 
-6.32653 2.21778 -9.18367 -6.37117 2.2449 -9.18367 -5.91837 1.91785 -9.18367 
0.612245 2.2449 -9.39734 1.02041 2.2449 -9.22372 1.14793 2.2449 -9.18367 
1.42857 2.06539 -9.18367 -6.73469 2.65306 -9.19727 -6.73469 2.64611 -9.18367 
-6.74221 2.65306 -9.18367 -0.612245 2.65306 -9.48971 -0.204082 2.65306 -9.28333 
0.0224681 2.65306 -9.18367 0.204082 2.59777 -9.18367 0.612245 2.46121 -9.18367 
[...]
POINT_DATA 14387
SCALARS hardyglobal float
LOOKUP_TABLE default
3.4926 3.4926 3.4926 3.4926 3.4926 3.4926 3.4926 3.4926 3.4926 
3.4926 3.4926 3.4926 3.4926 3.4926 3.4926 3.4926 3.4926 3.4926 
3.4926 3.4926 3.4926 3.4926 3.4926 3.4926 3.4926 3.4926 3.4926 
3.4926 3.4926 3.4926 3.4926 3.4926 3.4926 3.4926 3.4926 3.4926 
3.4926 3.4926 3.4926 3.4926 3.4926 3.4926 3.4926 3.4926 3.4926 
3.4926 3.4926 3.4926 3.4926 3.4926 3.4926 3.4926 3.4926 3.4926 
3.4926 3.4926 3.4926 3.4926 3.4926 3.4926 3.4926 3.4926 3.4926 
3.4926 3.4926 3.4926 3.4926 3.4926 3.4926 3.4926 3.4926 3.4926 
3.4926 3.4926 3.4926 3.4926 3.4926 3.4926 3.4926 3.4926 3.4926 
3.4926 3.4926 3.4926 3.4926 3.4926 3.4926 3.4926 3.4926 3.4926 
3.4926 3.4926 3.4926 3.4926 3.4926 3.4926 3.4926 3.4926 3.4926 
3.4926 3.4926 3.4926 3.4926 3.4926 3.4926 3.4926 3.4926 3.4926 
3.4926 3.4926 3.4926 3.4926 3.4926 3.4926 3.4926 3.4926 3.4926 
3.4926 3.4926 3.4926 3.4926 3.4926 3.4926 3.4926 3.4926 3.4926 
3.4926 3.4926 3.4926 3.4926 3.4926 3.4926 3.4926 3.4926 3.4926 
3.4926 3.4926 3.4926 3.4926 3.4926 3.4926 3.4926 3.4926 3.4926 
3.4926 3.4926 3.4926 3.4926 3.4926 3.4926 3.4926 3.4926 3.4926 
3.4926 3.4926 3.4926 3.4926 3.4926 3.4926 3.4926 3.4926 3.4926 
3.4926 3.4926 3.4926 3.4926 3.4926 3.4926 3.4926 3.4926 3.4926 
3.4926 3.4926 3.4926 3.4926 3.4926 3.4926 3.4926 3.4926 3.4926 
3.4926 3.4926 3.4926 3.4926 3.4926 3.4926 3.4926 3.4926 3.4926 
3.4926 3.4926 3.4926 3.4926 3.4926 3.4926 3.4926 3.4926 3.4926 
3.4926 3.4926 3.4926 3.4926 3.4926 3.4926 3.4926 3.4926 3.4926 
3.4926 3.4926 3.4926 3.4926 3.4926 3.4926 3.4926 3.4926 3.4926 
3.4926 3.4926 3.4926 3.4926 3.4926 3.4926 3.4926 3.4926 3.4926 
3.4926 3.4926 3.4926 3.4926 3.4926 3.4926 3.4926 3.4926 3.4926 
3.4926 3.4926 3.4926 3.4926 3.4926 3.4926 3.4926 3.4926 3.4926 
3.4926 3.4926 3.4926 3.4926 3.4926 3.4926 3.4926 3.4926 3.4926 
3.4926 3.4926 3.4926 3.4926 3.4926 3.4926 3.4926 3.4926 3.4926 
3.4926 3.4926 3.4926 3.4926 3.4926 3.4926 3.4926 3.4926 3.4926 
3.4926 3.4926 3.4926 3.4926 3.4926 3.4926 3.4926 3.4926 3.4926 
3.4926 3.4926 3.4926 3.4926 3.4926 3.4926 3.4926 3.4926 3.4926 
3.4926 3.4926 3.4926 3.4926 3.4926 3.4926 3.4926 3.4926 3.4926 
3.4926 3.4926 3.4926 3.4926 3.4926 3.4926 3.4926 3.4926 3.4926 
3.4926 3.4926 3.4926 3.4926 3.4926 3.4926 3.4926 3.4926 3.4926 
3.4926 3.4926 3.4926 3.4926 3.4926 3.4926 3.4926 3.4926 3.4926 
3.4926 3.4926 3.4926 3.4926 3.4926 3.4926 3.4926 3.4926 3.4926 
3.4926 3.4926 3.4926 3.4926 3.4926 3.4926 3.4926 3.4926 3.4926 
3.4926 3.4926 3.4926 3.4926 3.4926 3.4926 3.4926 3.4926 3.4926 
3.4926 3.4926 3.4926 3.4926 3.4926 3.4926 3.4926 3.4926 3.4926 
3.4926 3.4926 3.4926 3.4926 3.4926 3.4926 3.4926 3.4926 3.4926 
3.4926 3.4926 3.4926 3.4926 3.4926 3.4926 3.4926 3.4926 3.4926 
3.4926 3.4926 3.4926 3.4926 3.4926 3.4926 3.4926 3.4926 3.4926 
3.4926 3.4926 3.4926 3.4926 3.4926 3.4926 3.4926 3.4926 3.4926 
3.4926 3.4926 3.4926 3.4926 3.4926 3.4926 3.4926 3.4926 3.4926 
3.4926 3.4926 3.4926 3.4926 3.4926 3.4926 3.4926 3.4926 3.4926 
3.4926 3.4926 3.4926 3.4926 3.4926 3.4926 3.4926 3.4926 3.4926 
3.4926 3.4926 3.4926 3.4926 3.4926 3.4926 3.4926 3.4926 3.4926 
3.4926 3.4926 3.4926 3.4926 3.4926 3.4926 3.4926 3.4926 3.4926 
3.4926 3.4926 3.4926 3.4926 3.4926 3.4926 3.4926 3.4926 3.4926 
3.4926 3.4926 3.4926 3.4926 3.4926 3.4926 3.4926 3.4926 3.4926 
3.4926 3.4926 3.4926 3.4926 3.4926 3.4926 3.4926 3.4926 3.4926 
3.4926 3.4926 3.4926 3.4926 3.4926 3.4926 3.4926 3.4926 3.4926 
3.4926 3.4926 3.4926 3.4926 3.4926 3.4926 3.4926 3.4926 3.4926 
3.4926 3.4926 3.4926 3.4926 3.4926 3.4926 3.4926 3.4926 3.4926 
3.4926 3.4926 3.4926 3.4926 3.4926 3.4926 3.4926 3.4926 3.4926 
3.4926 3.4926 3.4926 3.4926 3.4926 3.4926 3.4926 3.4926 3.4926 
3.4926 3.4926 3.4926 3.4926 3.4926 3.4926 3.4926 3.4926 3.4926 
3.4926 3.4926 3.4926 3.4926 3.4926 3.4926 3.4926 3.4926 3.4926 
3.4926 3.4926 3.4926 3.4926 3.4926 3.4926 3.4926 3.4926 3.4926 
3.4926 3.4926 3.4926 3.4926 3.4926 3.4926 3.4926 3.4926 3.4926 
3.4926 3.4926 3.4926 3.4926 3.4926 3.4926 3.4926 3.4926 3.4926 
3.4926 3.4926 3.4926 3.4926 3.4926 3.4926 3.4926 3.4926 3.4926 
3.4926 3.4926 3.4926 3.4926 3.4926 3.4926 3.4926 3.4926 3.4926 
3.4926 3.4926 3.4926 3.4926 3.4926 3.4926 3.4926 3.4926 3.4926 
3.4926 3.4926 3.4926 3.4926 3.4926 3.4926 3.4926 3.4926 3.4926 
3.4926 3.4926 3.4926 3.4926 3.4926 3.4926 3.4926 3.4926 3.4926 
3.4926 3.4926 3.4926 3.4926 3.4926 3.4926 3.4926 3.4926 3.4926 
3.4926 3.4926 3.4926 3.4926 3.4926 3.4926 3.4926 3.4926 3.4926 
3.4926 3.4926 3.4926 3.4926 3.4926 3.4926 3.4926 3.4926 3.4926 
3.4926 3.4926 3.4926 3.4926 3.4926 3.4926 3.4926 3.4926 3.4926 
3.4926 3.4926 3.4926 3.4926 3.4926 3.4926 3.4926 3.4926 3.4926 
3.4926 3.4926 3.4926 3.4926 3.4926 3.4926 3.4926 3.4926 3.4926 
3.4926 3.4926 3.4926 3.4926 3.4926 3.4926 3.4926 3.4926 3.4926 
3.4926 3.4926 3.4926 3.4926 3.4926 3.4926 3.4926 3.4926 3.4926 
3.4926 3.4926 3.4926 3.4926 3.4926 3.4926 3.4926 3.4926 3.4926 
3.4926 3.4926 3.4926 3.4926 3.4926 3.4926 3.4926 3.4926 3.4926 
3.4926 3.4926 3.4926 3.4926 3.4926 3.4926 3.4926 3.4926 3.4926 
3.4926 3.4926 3.4926 3.4926 3.4926 3.4926 3.4926 3.4926 3.4926 
3.4926 3.4926 3.4926 3.4926 3.4926 3.4926 3.4926 3.4926 3.4926 
3.4926 3.4926 3.4926 3.4926 3.4926 3.4926 3.4926 3.4926 3.4926 
3.4926 3.4926 3.4926 3.4926 3.4926 3.4926 3.4926 3.4926 3.4926 
3.4926 3.4926 3.4926 3.4926 3.4926 3.4926 3.4926 3.4926 3.4926 
3.4926 3.4926 3.4926 3.4926 3.4926 3.4926 3.4926 3.4926 3.4926 
3.4926 3.4926 3.4926 3.4926 3.4926 3.4926 3.4926 3.4926 3.4926 
3.4926 3.4926 3.4926 3.4926 3.4926 3.4926 3.4926 3.4926 3.4926 
3.4926 3.4926 3.4926 3.4926 3.4926 3.4926 3.4926 3.4926 3.4926 
3.4926 3.4926 3.4926 3.4926 3.4926 3.4926 3.4926 3.4926 3.4926 
3.4926 3.4926 3.4926 3.4926 3.4926 3.4926 3.4926 3.4926 3.4926 
3.4926 3.4926 3.4926 3.4926 3.4926 3.4926 3.4926 3.4926 3.4926 
3.4926 3.4926 3.4926 3.4926 3.4926 3.4926 3.4926 3.4926 3.4926 
3.4926 3.4926 3.4926 3.4926 3.4926 3.4926 3.4926 3.4926 3.4926 
3.4926 3.4926 3.4926 3.4926 3.4926 3.4926 3.4926 3.4926 3.4926 
3.4926 3.4926 3.4926 3.4926 3.4926 3.4926 3.4926 3.4926 3.4926 
3.4926 3.4926 3.4926 3.4926 3.4926 3.4926 3.4926 3.4926 3.4926 
3.4926 3.4926 3.4926 3.4926 3.4926 3.4926 3.4926 3.4926 3.4926 
3.4926 3.4926 3.4926 3.4926 3.4926 3.4926 3.4926 3.4926 3.4926 
3.4926 3.4926 3.4926 3.4926 3.4926 3.4926 3.4926 3.4926 3.4926 
3.4926 3.4926 3.4926 3.4926 3.4926 3.4926 3.4926 3.4926 3.4926 
3.4926 3.4926 3.4926 3.4926 3.4926 3.4926 3.4926 3.4926 3.4926 
3.4926 3.4926 3.4926 3.4926 3.4926 3.4926 3.4926 3.4926 3.4926 
3.4926 3.4926 3.4926 3.4926 3.4926 3.4926 3.4926 3.4926 3.4926 
3.4926 3.4926 3.4926 3.4926 3.4926 3.4926 3.4926 3.4926 3.4926 
3.4926 3.4926 3.4926 3.4926 3.4926 3.4926 3.4926 3.4926 3.4926 
3.4926 3.4926 3.4926 3.4926 3.4926 3.4926 3.4926 3.4926 3.4926 
3.4926 3.4926 3.4926 3.4926 3.4926 3.4926 3.4926 3.4926 3.4926 
3.4926 3.4926 3.4926 3.4926 3.4926 3.4926 3.4926 3.4926 3.4926 
3.4926 3.4926 3.4926 3.4926 3.4926 3.4926 3.4926 3.4926 3.4926 
3.4926 3.4926 3.4926 3.4926 3.4926 3.4926 3.4926 3.4926 3.4926 
3.4926 3.4926 3.4926 3.4926 3.4926 3.4926 3.4926 3.4926 3.4926 
3.4926 3.4926 3.4926 3.4926 3.4926 3.4926 3.4926 3.4926 3.4926 
3.4926 3.4926 3.4926 3.4926 3.4926 3.4926 3.4926 3.4926 3.4926 
3.4926 3.4926 3.4926 3.4926 3.4926 3.4926 3.4926 3.4926 3.4926 
3.4926 3.4926 3.4926 3.4926 3.4926 3.4926 3.4926 3.4926 3.4926 
3.4926 3.4926 3.4926 3.4926 3.4926 3.4926 3.4926 3.4926 3.4926 
3.4926 3.4926 3.4926 3.4926 3.4926 3.4926 3.4926 3.4926 3.4926 
3.4926 3.4926 3.4926 3.4926 3.4926 3.4926 3.4926 3.4926 3.4926 
3.4926 3.4926 3.4926 3.4926 3.4926 3.4926 3.4926 3.4926 3.4926 
3.4926 3.4926 3.4926 3.4926 3.4926 3.4926 3.4926 3.4926 3.4926 
3.4926 3.4926 3.4926 3.4926 3.4926 3.4926 3.4926 3.4926 3.4926 
3.4926 3.4926 3.4926 3.4926 3.4926 3.4926 3.4926 3.4926 3.4926 
3.4926 3.4926 3.4926 3.4926 3.4926 3.4926 3.4926 3.4926 3.4926 
3.4926 3.4926 3.4926 3.4926 3.4926 3.4926 3.4926 3.4926 3.4926 
3.4926 3.4926 3.4926 3.4926 3.4926 3.4926 3.4926 3.4926 3.4926 
3.4926 3.4926 3.4926 3.4926 3.4926 3.4926 3.4926 3.4926 3.4926 
3.4926 3.4926 3.4926 3.4926 3.4926 3.4926 3.4926 3.4926 3.4926 
3.4926 3.4926 3.4926 3.4926 3.4926 3.4926 3.4926 3.4926 3.4926 
3.4926 3.4926 3.4926 3.4926 3.4926 3.4926 3.4926 3.4926 3.4926 
3.4926 3.4926 3.4926 3.4926 3.4926 3.4926 3.4926 3.4926 3.4926 
3.4926 3.4926 3.4926 3.4926 3.4926 3.4926 3.4926 3.4926 3.4926 
3.4926 3.4926 3.4926 3.4926 3.4926 3.4926 3.4926 3.4926 3.4926 
3.4926 3.4926 3.4926 3.4926 3.4926 3.4926 3.4926 3.4926 3.4926 
3.4926 3.4926 3.4926 3.4926 3.4926 3.4926 3.4926 3.4926 3.4926 
3.4926 3.4926 3.4926 3.4926 3.4926 3.4926 3.4926 3.4926 3.4926 
3.4926 3.4926 3.4926 3.4926 3.4926 3.4926 3.4926 3.4926 3.4926 
3.4926 3.4926 3.4926 3.4926 3.4926 3.4926 3.4926 3.4926 3.4926 
3.4926 3.4926 3.4926 3.4926 3.4926 3.4926 3.4926 3.4926 3.4926 
3.4926 3.4926 3.4926 3.4926 3.4926 3.4926 3.4926 3.4926 3.4926 
3.4926 3.4926 3.4926 3.4926 3.4926 3.4926 3.4926 3.4926 3.4926 
3.4926 3.4926 3.4926 3.4926 3.4926 3.4926 3.4926 3.4926 3.4926 
3.4926 3.4926 3.4926 3.4926 3.4926 3.4926 3.4926 3.4926 3.4926 
3.4926 3.4926 3.4926 3.4926 3.4926 3.4926 3.4926 3.4926 3.4926 
3.4926 3.4926 3.4926 3.4926 3.4926 3.4926 3.4926 3.4926 3.4926 
3.4926 3.4926 3.4926 3.4926 3.4926 3.4926 3.4926 3.4926 3.4926 
3.4926 3.4926 3.4926 3.4926 3.4926 3.4926 3.4926 3.4926 3.4926 
3.4926 3.4926 3.4926 3.4926 3.4926 3.4926 3.4926 3.4926 3.4926 
3.4926 3.4926 3.4926 3.4926 3.4926 3.4926 3.4926 3.4926 3.4926 
3.4926 3.4926 3.4926 3.4926 3.4926 3.4926 3.4926 3.4926 3.4926 
3.4926 3.4926 3.4926 3.4926 3.4926 3.4926 3.4926 3.4926 3.4926 
3.4926 3.4926 3.4926 3.4926 3.4926 3.4926 3.4926 3.4926 3.4926 
3.4926 3.4926 3.4926 3.4926 3.4926 3.4926 3.4926 3.4926 3.4926 
3.4926 3.4926 3.4926 3.4926 3.4926 3.4926 3.4926 3.4926 3.4926 
3.4926 3.4926 3.4926 3.4926 3.4926 3.4926 3.4926 3.4926 3.4926 
3.4926 3.4926 3.4926 3.4926 3.4926 3.4926 3.4926 3.4926 3.4926 
3.4926 3.4926 3.4926 3.4926 3.4926 3.4926 3.4926 3.4926 3.4926 
3.4926 3.4926 3.4926 3.4926 3.4926 3.4926 3.4926 3.4926 3.4926 
3.4926 3.4926 3.4926 3.4926 3.4926 3.4926 3.4926 3.4926 3.4926 
3.4926 3.4926 3.4926 3.4926 3.4926 3.4926 3.4926 3.4926 3.4926 
3.4926 3.4926 3.4926 3.4926 3.4926 3.4926 3.4926 3.4926 3.4926 
3.4926 3.4926 3.4926 3.4926 3.4926 3.4926 3.4926 3.4926 3.4926 
3.4926 3.4926 3.4926 3.4926 3.4926 3.4926 3.4926 3.4926 3.4926 
3.4926 3.4926 3.4926 3.4926 3.4926 3.4926 3.4926 3.4926 3.4926 
3.4926 3.4926 3.4926 3.4926 3.4926 3.4926 3.4926 3.4926 3.4926 
3.4926 3.4926 3.4926 3.4926 3.4926 3.4926 3.4926 3.4926 3.4926 
3.4926 3.4926 3.4926 3.4926 3.4926 3.4926 3.4926 3.4926 3.4926 
3.4926 3.4926 3.4926 3.4926 3.4926 3.4926 3.4926 3.4926 3.4926 
3.4926 3.4926 3.4926 3.4926 3.4926 3.4926 3.4926 3.4926 3.4926 
3.4926 3.4926 3.4926 3.4926 3.4926 3.4926 3.4926 3.4926 3.4926 
3.4926 3.4926 3.4926 3.4926 3.4926 3.4926 3.4926 3.4926 3.4926 
3.4926 3.4926 3.4926 3.4926 3.4926 3.4926 3.4926 3.4926 3.4926 
3.4926 3.4926 3.4926 3.4926 3.4926 3.4926 3.4926 3.4926 3.4926 
3.4926 3.4926 3.4926 3.4926 3.4926 3.4926 3.4926 3.4926 3.4926 
3.4926 3.4926 3.4926 3.4926 3.4926 3.4926 3.4926 3.4926 3.4926 
3.4926 3.4926 3.4926 3.4926 3.4926 3.4926 3.4926 3.4926 3.4926 
3.4926 3.4926 3.4926 3.4926 3.4926 3.4926 3.4926 3.4926 3.4926 
3.4926 3.4926 3.4926 3.4926 3.4926 3.4926 3.4926 3.4926 3.4926 
3.4926 3.4926 3.4926 3.4926 3.4926 3.4926 3.4926 3.4926 3.4926 
3.4926 3.4926 3.4926 3.4926 3.4926 3.4926 3.4926 3.4926 3.4926 
3.4926 3.4926 3.4926 3.4926 3.4926 3.4926 3.4926 3.4926 3.4926 
3.4926 3.4926 3.4926 3.4926 3.4926 3.4926 3.4926 3.4926 3.4926 
3.4926 3.4926 3.4926 3.4926 3.4926 3.4926 3.4926 3.4926 3.4926 
3.4926 3.4926 3.4926 3.4926 3.4926 3.4926 3.4926 3.4926 3.4926 
3.4926 3.4926 3.4926 3.4926 3.4926 3.4926 3.4926 3.4926 3.4926 
3.4926 3.4926 3.4926 3.4926 3.4926 3.4926 3.4926 3.4926 3.4926 
3.4926 3.4926 3.4926 3.4926 3.4926 3.4926 3.4926 3.4926 3.4926 
3.4926 3.4926 3.4926 3.4926 3.4926 3.4926 3.4926 3.4926 3.4926 
3.4926 3.4926 3.4926 3.4926 3.4926 3.4926 3.4926 3.4926 3.4926 
3.4926 3.4926 3.4926 3.4926 3.4926 3.4926 3.4926 3.4926 3.4926 
3.4926 3.4926 3.4926 3.4926 3.4926 3.4926 3.4926 3.4926 3.4926 
3.4926 3.4926 3.4926 3.4926 3.4926 3.4926 3.4926 3.4926 3.4926 
3.4926 3.4926 3.4926 3.4926 3.4926 3.4926 3.4926 3.4926 3.4926 
3.4926 3.4926 3.4926 3.4926 3.4926 3.4926 3.4926 3.4926 3.4926 
3.4926 3.4926 3.4926 3.4926 3.4926 3.4926 3.4926 3.4926 3.4926 
3.4926 3.4926 3.4926 3.4926 3.4926 3.4926 3.4926 3.4926 3.4926 
3.4926 3.4926 3.4926 3.4926 3.4926 3.4926 3.4926 3.4926 3.4926 
3.4926 3.4926 3.4926 3.4926 3.4926 3.4926 3.4926 3.4926 3.4926 
3.4926 3.4926 3.4926 3.4926 3.4926 3.4926 3.4926 3.4926 3.4926 
3.4926 3.4926 3.4926 3.4926 3.4926 3.4926 3.4926 3.4926 3.4926 
3.4926 3.4926 3.4926 3.4926 3.4926 3.4926 3.4926 3.4926 3.4926 
3.4926 3.4926 3.4926 3.4926 3.4926 3.4926 3.4926 3.4926 3.4926 
3.4926 3.4926 3.4926 3.4926 3.4926 3.4926 3.4926 3.4926 3.4926 
3.4926 3.4926 3.4926 3.4926 3.4926 3.4926 3.4926 3.4926 3.4926 
3.4926 3.4926 3.4926 3.4926 3.4926 3.4926 3.4926 3.4926 3.4926 
3.4926 3.4926 3.4926 3.4926 3.4926 3.4926 3.4926 3.4926 3.4926 
3.4926 3.4926 3.4926 3.4926 3.4926 3.4926 3.4926 3.4926 3.4926 
3.4926 3.4926 3.4926 3.4926 3.4926 3.4926 3.4926 3.4926 3.4926 
3.4926 3.4926 3.4926 3.4926 3.4926 3.4926 3.4926 3.4926 3.4926 
3.4926 3.4926 3.4926 3.4926 3.4926 3.4926 3.4926 3.4926 3.4926 
3.4926 3.4926 3.4926 3.4926 3.4926 3.4926 3.4926 3.4926 3.4926 
3.4926 3.4926 3.4926 3.4926 3.4926 3.4926 3.4926 3.4926 3.4926 
3.4926 3.4926 3.4926 3.4926 3.4926 3.4926 3.4926 3.4926 3.4926 
3.4926 3.4926 3.4926 3.4926 3.4926 3.4926 3.4926 3.4926 3.4926 
3.4926 3.4926 3.4926 3.4926 3.4926 3.4926 3.4926 3.4926 3.4926 
3.4926 3.4926 3.4926 3.4926 3.4926 3.4926 3.4926 3.4926 3.4926 
3.4926 3.4926 3.4926 3.4926 3.4926 3.4926 3.4926 3.4926 3.4926 
3.4926 3.4926 3.4926 3.4926 3.4926 3.4926 3.4926 3.4926 3.4926 
3.4926 3.4926 3.4926 3.4926 3.4926 3.4926 3.4926 3.4926 3.4926 
3.4926 3.4926 3.4926 3.4926 3.4926 3.4926 3.4926 3.4926 3.4926 
3.4926 3.4926 3.4926 3.4926 3.4926 3.4926 3.4926 3.4926 3.4926 
3.4926 3.4926 3.4926 3.4926 3.4926 3.4926 3.4926 3.4926 3.4926 
3.4926 3.4926 3.4926 3.4926 3.4926 3.4926 3.4926 3.4926 3.4926 
3.4926 3.4926 3.4926 3.4926 3.4926 3.4926 3.4926 3.4926 3.4926 
3.4926 3.4926 3.4926 3.4926 3.4926 3.4926 3.4926 3.4926 3.4926 
3.4926 3.4926 3.4926 3.4926 3.4926 3.4926 3.4926 3.4926 3.4926 
3.4926 3.4926 3.4926 3.4926 3.4926 3.4926 3.4926 3.4926 3.4926 
3.4926 3.4926 3.4926 3.4926 3.4926 3.4926 3.4926 3.4926 3.4926 
3.4926 3.4926 3.4926 3.4926 3.4926 3.4926 3.4926 3.4926 3.4926 
3.4926 3.4926 3.4926 3.4926 3.4926 3.4926 3.4926 3.4926 3.4926 
3.4926 3.4926 3.4926 3.4926 3.4926 3.4926 3.4926 3.4926 3.4926 
3.4926 3.4926 3.4926 3.4926 3.4926 3.4926 3.4926 3.4926 3.4926 
3.4926 3.4926 3.4926 3.4926 3.4926 3.4926 3.4926 3.4926 3.4926 
3.4926 3.4926 3.4926 3.4926 3.4926 3.4926 3.4926 3.4926 3.4926 
3.4926 3.4926 3.4926 3.4926 3.4926 3.4926 3.4926 3.4926 3.4926 
3.4926 3.4926 3.4926 3.4926 3.4926 3.4926 3.4926 3.4926 3.4926 
3.4926 3.4926 3.4926 3.4926 3.4926 3.4926 3.4926 3.4926 3.4926 
3.4926 3.4926 3.4926 3.4926 3.4926 3.4926 3.4926 3.4926 3.4926 
3.4926 3.4926 3.4926 3.4926 3.4926 3.4926 3.4926 3.4926 3.4926 
3.4926 3.4926 3.4926 3.4926 3.4926 3.4926 3.4926 3.4926 3.4926 
3.4926 3.4926 3.4926 3.4926 3.4926 3.4926 3.4926 3.4926 3.4926 
3.4926 3.4926 3.4926 3.4926 3.4926 3.4926 3.4926 3.4926 3.4926 
3.4926 3.4926 3.4926 3.4926 3.4926 3.4926 3.4926 3.4926 3.4926 
3.4926 3.4926 3.4926 3.4926 3.4926 3.4926 3.4926 3.4926 3.4926 
3.4926 3.4926 3.4926 3.4926 3.4926 3.4926 3.4926 3.4926 3.4926 
3.4926 3.4926 3.4926 3.4926 3.4926 3.4926 3.4926 3.4926 3.4926 
3.4926 3.4926 3.4926 3.4926 3.4926 3.4926 3.4926 3.4926 3.4926 
3.4926 3.4926 3.4926 3.4926 3.4926 3.4926 3.4926 3.4926 3.4926 
3.4926 3.4926 3.4926 3.4926 3.4926 3.4926 3.4926 3.4926 3.4926 
3.4926 3.4926 3.4926 3.4926 3.4926 3.4926 3.4926 3.4926 3.4926 
3.4926 3.4926 3.4926 3.4926 3.4926 3.4926 3.4926 3.4926 3.4926 
3.4926 3.4926 3.4926 3.4926 3.4926 3.4926 3.4926 3.4926 3.4926 
3.4926 3.4926 3.4926 3.4926 3.4926 3.4926 3.4926 3.4926 3.4926 
3.4926 3.4926 3.4926 3.4926 3.4926 3.4926 3.4926 3.4926 3.4926 
3.4926 3.4926 3.4926 3.4926 3.4926 3.4926 3.4926 3.4926 3.4926 
3.4926 3.4926 3.4926 3.4926 3.4926 3.4926 3.4926 3.4926 3.4926 
3.4926 3.4926 3.4926 3.4926 3.4926 3.4926 3.4926 3.4926 3.4926 
3.4926 3.4926 3.4926 3.4926 3.4926 3.4926 3.4926 3.4926 3.4926 
3.4926 3.4926 3.4926 3.4926 3.4926 3.4926 3.4926 3.4926 3.4926 
3.4926 3.4926 3.4926 3.4926 3.4926 3.4926 3.4926 3.4926 3.4926 
3.4926 3.4926 3.4926 3.4926 3.4926 3.4926 3.4926 3.4926 3.4926 
3.4926 3.4926 3.4926 3.4926 3.4926 3.4926 3.4926 3.4926 3.4926 
3.4926 3.4926 3.4926 3.4926 3.4926 3.4926 3.4926 3.4926 3.4926 
3.4926 3.4926 3.4926 3.4926 3.4926 3.4926 3.4926 3.4926 3.4926 
3.4926 3.4926 3.4926 3.4926 3.4926 3.4926 3.4926 3.4926 3.4926 
3.4926 3.4926 3.4926 3.4926 3.4926 3.4926 3.4926 3.4926 3.4926 
3.4926 3.4926 3.4926 3.4926 3.4926 3.4926 3.4926 3.4926 3.4926 
3.4926 3.4926 3.4926 3.4926 3.4926 3.4926 3.4926 3.4926 3.4926 
3.4926 3.4926 3.4926 3.4926 3.4926 3.4926 3.4926 3.4926 3.4926 
3.4926 3.4926 3.4926 3.4926 3.4926 3.4926 3.4926 3.4926 3.4926 
3.4926 3.4926 3.4926 3.4926 3.4926 3.4926 3.4926 3.4926 3.4926 
3.4926 3.4926 3.4926 3.4926 3.4926 3.4926 3.4926 3.4926 3.4926 
3.4926 3.4926 3.4926 3.4926 3.4926 3.4926 3.4926 3.4926 3.4926 
3.4926 3.4926 3.4926 3.4926 3.4926 3.4926 3.4926 3.4926 3.4926 
3.4926 3.4926 3.4926 3.4926 3.4926 3.4926 3.4926 3.4926 3.4926 
3.4926 3.4926 3.4926 3.4926 3.4926 3.4926 3.4926 3.4926 3.4926 
3.4926 3.4926 3.4926 3.4926 3.4926 3.4926 3.4926 3.4926 3.4926 
3.4926 3.4926 3.4926 3.4926 3.4926 3.4926 3.4926 3.4926 3.4926 
3.4926 3.4926 3.4926 3.4926 3.4926 3.4926 3.4926 3.4926 3.4926 
3.4926 3.4926 3.4926 3.4926 3.4926 3.4926 3.4926 3.4926 3.4926 
3.4926 3.4926 3.4926 3.4926 3.4926 3.4926 3.4926 3.4926 3.4926 
3.4926 3.4926 3.4926 3.4926 3.4926 3.4926 3.4926 3.4926 3.4926 
3.4926 3.4926 3.4926 3.4926 3.4926 3.4926 3.4926 3.4926 3.4926 
3.4926 3.4926 3.4926 3.4926 3.4926 3.4926 3.4926 3.4926 3.4926 
3.4926 3.4926 3.4926 3.4926 3.4926 3.4926 3.4926 3.4926 3.4926 
3.4926 3.4926 3.4926 3.4926 3.4926 3.4926 3.4926 3.4926 3.4926 
3.4926 3.4926 3.4926 3.4926 3.4926 3.4926 3.4926 3.4926 3.4926 
3.4926 3.4926 3.4926 3.4926 3.4926 3.4926 3.4926 3.4926 3.4926 
3.4926 3.4926 3.4926 3.4926 3.4926 3.4926 3.4926 3.4926 3.4926 
3.4926 3.4926 3.4926 3.4926 3.4926 3.4926 3.4926 3.4926 3.4926 
3.4926 3.4926 3.4926 3.4926 3.4926 3.4926 3.4926 3.4926 3.4926 
3.4926 3.4926 3.4926 3.4926 3.4926 3.4926 3.4926 3.4926 3.4926 
3.4926 3.4926 3.4926 3.4926 3.4926 3.4926 3.4926 3.4926 3.4926 
3.4926 3.4926 3.4926 3.4926 3.4926 3.4926 3.4926 3.4926 3.4926 
3.4926 3.4926 3.4926 3.4926 3.4926 3.4926 3.4926 3.4926 3.4926 
3.4926 3.4926 3.4926 3.4926 3.4926 3.4926 3.4926 3.4926 3.4926 
3.4926 3.4926 3.4926 3.4926 3.4926 3.4926 3.4926 3.4926 3.4926 
3.4926 3.4926 3.4926 3.4926 3.4926 3.4926 3.4926 3.4926 3.4926 
3.4926 3.4926 3.4926 3.4926 3.4926 3.4926 3.4926 3.4926 3.4926 
3.4926 3.4926 3.4926 3.4926 3.4926 3.4926 3.4926 3.4926 3.4926 
3.4926 3.4926 3.4926 3.4926 3.4926 3.4926 3.4926 3.4926 3.4926 
3.4926 3.4926 3.4926 3.4926 3.4926 3.4926 3.4926 3.4926 3.4926 
3.4926 3.4926 3.4926 3.4926 3.4926 3.4926 3.4926 3.4926 3.4926 
3.4926 3.4926 3.4926 3.4926 3.4926 3.4926 3.4926 3.4926 3.4926 
3.4926 3.4926 3.4926 3.4926 3.4926 3.4926 3.4926 3.4926 3.4926 
3.4926 3.4926 3.4926 3.4926 3.4926 3.4926 3.4926 3.4926 3.4926 
3.4926 3.4926 3.4926 3.4926 3.4926 3.4926 3.4926 3.4926 3.4926 
3.4926 3.4926 3.4926 3.4926 3.4926 3.4926 3.4926 3.4926 3.4926 
3.4926 3.4926 3.4926 3.4926 3.4926 3.4926 3.4926 3.4926 3.4926 
3.4926 3.4926 3.4926 3.4926 3.4926 3.4926 3.4926 3.4926 3.4926 
3.4926 3.4926 3.4926 3.4926 3.4926 3.4926 3.4926 3.4926 3.4926 
3.4926 3.4926 3.4926 3.4926 3.4926 3.4926 3.4926 3.4926 3.4926 
3.4926 3.4926 3.4926 3.4926 3.4926 3.4926 3.4926 3.4926 3.4926 